<?xml version="1.0" encoding="UTF-8"?>

<!-- generated on 2025-12-01 22:22:37 by Eclipse SUMO GUI Version 1.24.0
<sumoConfiguration xmlns:xsi="http://www.w3.org/2001/XMLSchema-instance" xsi:noNamespaceSchemaLocation="http://sumo.dlr.de/xsd/sumoConfiguration.xsd">

    <input>
        <net-file value="rainbow.net.xml"/>
        <route-files value="rainbow.rou.xml"/>
        <additional-files value="map.poly.xml,rainbow.detectors.add.xml"/>
    </input>

    <time>
        <begin value="0"/>
        <end value="10800"/>
        <step-length value="1.0"/>
    </time>

    <processing>
        <time-to-teleport value="-1"/>
    </processing>

    <report>
        <no-step-log value="true"/>
    </report>

    <traci_server>
        <remote-port value="50626"/>
    </traci_server>

</sumoConfiguration>
-->

<meandata xmlns:xsi="http://www.w3.org/2001/XMLSchema-instance" xsi:noNamespaceSchemaLocation="http://sumo.dlr.de/xsd/meandata_file.xsd">
    <interval begin="0.00" end="120.00" id="ld_all">
        <edge id="-1359516015#0">
            <lane id="-1359516015#0_0" departed="0" arrived="0" entered="0" left="0"/>
        </edge>
        <edge id="-1359516015#1">
            <lane id="-1359516015#1_0" departed="0" arrived="0" entered="0" left="0"/>
        </edge>
        <edge id="-1359516015#2">
            <lane id="-1359516015#2_0" departed="0" arrived="0" entered="0" left="0"/>
        </edge>
        <edge id="-1359516015#3">
            <lane id="-1359516015#3_0" departed="0" arrived="0" entered="0" left="0"/>
        </edge>
        <edge id="-1359516015#4">
            <lane id="-1359516015#4_0" departed="0" arrived="0" entered="0" left="0"/>
        </edge>
        <edge id="-1360808511">
            <lane id="-1360808511_0" departed="0" arrived="0" entered="0" left="0"/>
        </edge>
        <edge id="-1361865600#0">
            <lane id="-1361865600#0_0" departed="0" arrived="0" entered="0" left="0"/>
        </edge>
        <edge id="-1361865600#1">
            <lane id="-1361865600#1_0" departed="0" arrived="0" entered="0" left="0"/>
        </edge>
        <edge id="-1361865606#0">
            <lane id="-1361865606#0_0" departed="0" arrived="0" entered="0" left="0"/>
        </edge>
        <edge id="-1361865606#1">
            <lane id="-1361865606#1_0" departed="0" arrived="0" entered="0" left="0"/>
        </edge>
        <edge id="-1361865606#2">
            <lane id="-1361865606#2_0" departed="0" arrived="0" entered="0" left="0"/>
        </edge>
        <edge id="-1392269854">
            <lane id="-1392269854_0" departed="0" arrived="0" entered="0" left="0"/>
            <lane id="-1392269854_1" departed="0" arrived="0" entered="0" left="0"/>
            <lane id="-1392269854_2" departed="0" arrived="0" entered="0" left="0"/>
        </edge>
        <edge id="-1393651354">
            <lane id="-1393651354_0" departed="0" arrived="0" entered="0" left="0"/>
        </edge>
        <edge id="-1408700492#2">
            <lane id="-1408700492#2_0" departed="0" arrived="0" entered="0" left="0"/>
        </edge>
        <edge id="-1408700492#3">
            <lane id="-1408700492#3_0" departed="0" arrived="0" entered="0" left="0"/>
        </edge>
        <edge id="-1414574381">
            <lane id="-1414574381_0" departed="0" arrived="0" entered="0" left="0"/>
            <lane id="-1414574381_1" departed="0" arrived="0" entered="0" left="0"/>
        </edge>
        <edge id="-1414574382">
            <lane id="-1414574382_0" departed="0" arrived="0" entered="0" left="0"/>
            <lane id="-1414574382_1" departed="0" arrived="0" entered="0" left="0"/>
            <lane id="-1414574382_2" departed="0" arrived="0" entered="0" left="0"/>
        </edge>
        <edge id="-1414574383#0">
            <lane id="-1414574383#0_0" departed="0" arrived="0" entered="0" left="0"/>
            <lane id="-1414574383#0_1" departed="0" arrived="0" entered="0" left="0"/>
            <lane id="-1414574383#0_2" departed="0" arrived="0" entered="0" left="0"/>
        </edge>
        <edge id="-1414574383#1">
            <lane id="-1414574383#1_0" departed="0" arrived="0" entered="0" left="0"/>
            <lane id="-1414574383#1_1" departed="0" arrived="0" entered="0" left="0"/>
            <lane id="-1414574383#1_2" departed="0" arrived="0" entered="0" left="0"/>
        </edge>
        <edge id="-1414574383#2">
            <lane id="-1414574383#2_0" departed="0" arrived="0" entered="0" left="0"/>
            <lane id="-1414574383#2_1" departed="0" arrived="0" entered="0" left="0"/>
            <lane id="-1414574383#2_2" departed="0" arrived="0" entered="0" left="0"/>
        </edge>
        <edge id="-1414574630">
            <lane id="-1414574630_0" departed="0" arrived="0" entered="0" left="0"/>
        </edge>
        <edge id="-1422344387#0">
            <lane id="-1422344387#0_0" departed="0" arrived="0" entered="0" left="0"/>
            <lane id="-1422344387#0_1" departed="0" arrived="0" entered="0" left="0"/>
        </edge>
        <edge id="-1429050251">
            <lane id="-1429050251_0" departed="0" arrived="0" entered="0" left="0"/>
            <lane id="-1429050251_1" departed="0" arrived="0" entered="0" left="0"/>
            <lane id="-1429050251_2" departed="0" arrived="0" entered="0" left="0"/>
        </edge>
        <edge id="-14293342#11">
            <lane id="-14293342#11_0" departed="0" arrived="0" entered="0" left="0"/>
        </edge>
        <edge id="-14293342#12">
            <lane id="-14293342#12_0" departed="0" arrived="0" entered="0" left="0"/>
        </edge>
        <edge id="-14293342#13">
            <lane id="-14293342#13_0" departed="0" arrived="0" entered="0" left="0"/>
        </edge>
        <edge id="-14302098#0">
            <lane id="-14302098#0_0" departed="0" arrived="0" entered="0" left="0"/>
        </edge>
        <edge id="-14302098#1">
            <lane id="-14302098#1_0" departed="0" arrived="0" entered="0" left="0"/>
        </edge>
        <edge id="-14302098#2">
            <lane id="-14302098#2_0" departed="0" arrived="0" entered="0" left="0"/>
        </edge>
        <edge id="-14305384">
            <lane id="-14305384_0" departed="0" arrived="0" entered="0" left="0"/>
        </edge>
        <edge id="-14312156#1">
            <lane id="-14312156#1_0" departed="0" arrived="0" entered="0" left="0"/>
        </edge>
        <edge id="-14312156#2">
            <lane id="-14312156#2_0" departed="0" arrived="0" entered="0" left="0"/>
        </edge>
        <edge id="-14312156#3">
            <lane id="-14312156#3_0" departed="0" arrived="0" entered="0" left="0"/>
        </edge>
        <edge id="-1435030515#1">
            <lane id="-1435030515#1_0" departed="0" arrived="0" entered="0" left="0"/>
        </edge>
        <edge id="-1435030515#2">
            <lane id="-1435030515#2_0" departed="0" arrived="0" entered="0" left="0"/>
        </edge>
        <edge id="-256397944#0">
            <lane id="-256397944#0_0" departed="0" arrived="0" entered="0" left="0"/>
            <lane id="-256397944#0_1" departed="0" arrived="0" entered="0" left="0"/>
            <lane id="-256397944#0_2" departed="0" arrived="0" entered="0" left="0"/>
            <lane id="-256397944#0_3" departed="0" arrived="0" entered="0" left="0"/>
        </edge>
        <edge id="-256397944#1">
            <lane id="-256397944#1_0" departed="0" arrived="0" entered="0" left="0"/>
            <lane id="-256397944#1_1" departed="0" arrived="0" entered="0" left="0"/>
            <lane id="-256397944#1_2" departed="0" arrived="0" entered="0" left="0"/>
            <lane id="-256397944#1_3" departed="0" arrived="0" entered="0" left="0"/>
        </edge>
        <edge id="-256397944#2">
            <lane id="-256397944#2_0" departed="0" arrived="0" entered="0" left="0"/>
            <lane id="-256397944#2_1" departed="0" arrived="0" entered="0" left="0"/>
            <lane id="-256397944#2_2" departed="0" arrived="0" entered="0" left="0"/>
            <lane id="-256397944#2_3" departed="0" arrived="0" entered="0" left="0"/>
        </edge>
        <edge id="-256397944#3">
            <lane id="-256397944#3_0" departed="0" arrived="0" entered="0" left="0"/>
            <lane id="-256397944#3_1" departed="0" arrived="0" entered="0" left="0"/>
            <lane id="-256397944#3_2" departed="0" arrived="0" entered="0" left="0"/>
            <lane id="-256397944#3_3" departed="0" arrived="0" entered="0" left="0"/>
        </edge>
        <edge id="-256397944#4">
            <lane id="-256397944#4_0" departed="0" arrived="0" entered="0" left="0"/>
            <lane id="-256397944#4_1" departed="0" arrived="0" entered="0" left="0"/>
            <lane id="-256397944#4_2" departed="0" arrived="0" entered="0" left="0"/>
            <lane id="-256397944#4_3" departed="0" arrived="0" entered="0" left="0"/>
        </edge>
        <edge id="-256397944#5">
            <lane id="-256397944#5_0" departed="0" arrived="0" entered="0" left="0"/>
            <lane id="-256397944#5_1" departed="0" arrived="0" entered="0" left="0"/>
            <lane id="-256397944#5_2" departed="0" arrived="0" entered="0" left="0"/>
            <lane id="-256397944#5_3" departed="0" arrived="0" entered="0" left="0"/>
        </edge>
        <edge id="-256397944#6">
            <lane id="-256397944#6_0" departed="0" arrived="0" entered="0" left="0"/>
            <lane id="-256397944#6_1" departed="0" arrived="0" entered="0" left="0"/>
            <lane id="-256397944#6_2" departed="0" arrived="0" entered="0" left="0"/>
            <lane id="-256397944#6_3" departed="0" arrived="0" entered="0" left="0"/>
        </edge>
        <edge id="-642324143#0">
            <lane id="-642324143#0_0" departed="0" arrived="0" entered="0" left="0"/>
            <lane id="-642324143#0_1" departed="0" arrived="0" entered="0" left="0"/>
            <lane id="-642324143#0_2" departed="0" arrived="0" entered="0" left="0"/>
        </edge>
        <edge id="-642324143#1">
            <lane id="-642324143#1_0" departed="0" arrived="0" entered="0" left="0"/>
            <lane id="-642324143#1_1" departed="0" arrived="0" entered="0" left="0"/>
            <lane id="-642324143#1_2" departed="0" arrived="0" entered="0" left="0"/>
        </edge>
        <edge id="-642324143#2">
            <lane id="-642324143#2_0" departed="0" arrived="0" entered="0" left="0"/>
            <lane id="-642324143#2_1" departed="0" arrived="0" entered="0" left="0"/>
            <lane id="-642324143#2_2" departed="0" arrived="0" entered="0" left="0"/>
        </edge>
        <edge id="-690085727#0">
            <lane id="-690085727#0_0" departed="0" arrived="0" entered="0" left="0"/>
        </edge>
        <edge id="-690085727#1">
            <lane id="-690085727#1_0" departed="0" arrived="0" entered="0" left="0"/>
        </edge>
        <edge id="-690085727#2">
            <lane id="-690085727#2_0" departed="0" arrived="0" entered="0" left="0"/>
        </edge>
        <edge id="-690085727#3">
            <lane id="-690085727#3_0" departed="0" arrived="0" entered="0" left="0"/>
        </edge>
        <edge id="-690085727#4">
            <lane id="-690085727#4_0" departed="0" arrived="0" entered="0" left="0"/>
        </edge>
        <edge id="-690085727#5">
            <lane id="-690085727#5_0" departed="0" arrived="0" entered="0" left="0"/>
        </edge>
        <edge id="-690085727#6">
            <lane id="-690085727#6_0" departed="0" arrived="0" entered="0" left="0"/>
        </edge>
        <edge id="-807121750#3">
            <lane id="-807121750#3_0" departed="0" arrived="0" entered="0" left="0"/>
            <lane id="-807121750#3_1" departed="0" arrived="0" entered="0" left="0"/>
        </edge>
        <edge id="-807121750#4">
            <lane id="-807121750#4_0" departed="0" arrived="0" entered="0" left="0"/>
            <lane id="-807121750#4_1" departed="0" arrived="0" entered="0" left="0"/>
        </edge>
        <edge id="-827256521">
            <lane id="-827256521_0" departed="0" arrived="0" entered="0" left="0"/>
        </edge>
        <edge id="1025123964#0">
            <lane id="1025123964#0_0" departed="0" arrived="0" entered="0" left="0"/>
            <lane id="1025123964#0_1" departed="0" arrived="0" entered="0" left="0"/>
            <lane id="1025123964#0_2" departed="0" arrived="0" entered="0" left="0"/>
            <lane id="1025123964#0_3" departed="0" arrived="0" entered="0" left="0"/>
        </edge>
        <edge id="1025123964#1">
            <lane id="1025123964#1_0" departed="0" arrived="0" entered="0" left="0"/>
            <lane id="1025123964#1_1" departed="0" arrived="0" entered="0" left="0"/>
            <lane id="1025123964#1_2" departed="0" arrived="0" entered="0" left="0"/>
            <lane id="1025123964#1_3" departed="0" arrived="0" entered="0" left="0"/>
        </edge>
        <edge id="1025123965#1">
            <lane id="1025123965#1_0" density="4.26" waitingTime="0.00" speed="8.06" departed="3" arrived="0" entered="0" left="5"/>
            <lane id="1025123965#1_1" density="3.16" waitingTime="0.00" speed="6.18" departed="3" arrived="0" entered="0" left="2"/>
            <lane id="1025123965#1_2" density="3.69" waitingTime="0.00" speed="8.42" departed="2" arrived="0" entered="0" left="6"/>
            <lane id="1025123965#1_3" density="4.00" waitingTime="0.00" speed="5.46" departed="3" arrived="0" entered="0" left="0"/>
            <lane id="1025123965#1_4" density="0.74" waitingTime="0.00" speed="1.69" departed="3" arrived="0" entered="0" left="0"/>
        </edge>
        <edge id="1025123967#0">
            <lane id="1025123967#0_0" density="2.81" waitingTime="0.00" speed="17.28" departed="0" arrived="0" entered="5" left="4"/>
            <lane id="1025123967#0_1" density="1.34" waitingTime="0.00" speed="19.19" departed="0" arrived="0" entered="1" left="7"/>
            <lane id="1025123967#0_2" density="1.49" waitingTime="0.00" speed="17.42" departed="0" arrived="0" entered="6" left="0"/>
            <lane id="1025123967#0_3" departed="0" arrived="0" entered="0" left="0"/>
        </edge>
        <edge id="1025123968#2">
            <lane id="1025123968#2_0" density="6.07" waitingTime="83.00" speed="4.08" departed="0" arrived="0" entered="3" left="1"/>
            <lane id="1025123968#2_1" density="4.79" waitingTime="42.00" speed="8.66" departed="0" arrived="0" entered="8" left="2"/>
            <lane id="1025123968#2_2" density="3.11" waitingTime="32.00" speed="6.77" departed="0" arrived="0" entered="0" left="1"/>
            <lane id="1025123968#2_3" departed="0" arrived="0" entered="0" left="0"/>
            <lane id="1025123968#2_4" departed="0" arrived="0" entered="0" left="0"/>
        </edge>
        <edge id="1025123969#0">
            <lane id="1025123969#0_0" density="6.73" waitingTime="0.00" speed="18.89" departed="0" arrived="0" entered="11" left="11"/>
            <lane id="1025123969#0_1" departed="0" arrived="0" entered="0" left="0"/>
            <lane id="1025123969#0_2" departed="0" arrived="0" entered="0" left="0"/>
        </edge>
        <edge id="1025123971#0">
            <lane id="1025123971#0_0" departed="0" arrived="0" entered="0" left="0"/>
            <lane id="1025123971#0_1" departed="0" arrived="0" entered="0" left="0"/>
            <lane id="1025123971#0_2" departed="0" arrived="0" entered="0" left="0"/>
        </edge>
        <edge id="1025123972#0">
            <lane id="1025123972#0_0" departed="0" arrived="0" entered="0" left="0"/>
            <lane id="1025123972#0_1" density="1.35" waitingTime="5.00" speed="7.06" departed="0" arrived="0" entered="1" left="2"/>
            <lane id="1025123972#0_2" density="1.17" waitingTime="0.00" speed="14.58" departed="0" arrived="0" entered="2" left="1"/>
            <lane id="1025123972#0_3" density="0.48" waitingTime="0.00" speed="18.71" departed="0" arrived="0" entered="1" left="1"/>
            <lane id="1025123972#0_4" departed="0" arrived="0" entered="0" left="0"/>
            <lane id="1025123972#0_5" departed="0" arrived="0" entered="0" left="0"/>
        </edge>
        <edge id="1025123972#1">
            <lane id="1025123972#1_0" departed="0" arrived="0" entered="0" left="0"/>
            <lane id="1025123972#1_1" density="7.21" waitingTime="0.00" speed="5.29" departed="0" arrived="0" entered="2" left="2"/>
            <lane id="1025123972#1_2" density="0.99" waitingTime="0.00" speed="19.33" departed="0" arrived="0" entered="1" left="1"/>
            <lane id="1025123972#1_3" density="1.02" waitingTime="0.00" speed="18.63" departed="0" arrived="0" entered="1" left="1"/>
            <lane id="1025123972#1_4" departed="0" arrived="0" entered="0" left="0"/>
            <lane id="1025123972#1_5" departed="0" arrived="0" entered="0" left="0"/>
        </edge>
        <edge id="1025123972#2">
            <lane id="1025123972#2_0" departed="0" arrived="0" entered="0" left="0"/>
            <lane id="1025123972#2_1" density="64.18" waitingTime="0.00" speed="6.75" departed="0" arrived="0" entered="2" left="2"/>
            <lane id="1025123972#2_2" density="11.21" waitingTime="0.00" speed="19.33" departed="0" arrived="0" entered="1" left="1"/>
            <lane id="1025123972#2_3" density="11.63" waitingTime="0.00" speed="18.63" departed="0" arrived="0" entered="1" left="1"/>
            <lane id="1025123972#2_4" departed="0" arrived="0" entered="0" left="0"/>
            <lane id="1025123972#2_5" departed="0" arrived="0" entered="0" left="0"/>
        </edge>
        <edge id="1036458922#0">
            <lane id="1036458922#0_0" density="96.80" waitingTime="0.00" speed="15.67" departed="0" arrived="0" entered="7" left="7"/>
            <lane id="1036458922#0_1" density="58.89" waitingTime="0.00" speed="18.40" departed="0" arrived="0" entered="5" left="5"/>
            <lane id="1036458922#0_2" departed="0" arrived="0" entered="0" left="0"/>
        </edge>
        <edge id="1036458922#1">
            <lane id="1036458922#1_0" density="4.19" waitingTime="0.00" speed="17.33" departed="0" arrived="0" entered="7" left="9"/>
            <lane id="1036458922#1_1" density="1.62" waitingTime="0.00" speed="19.14" departed="0" arrived="0" entered="5" left="2"/>
            <lane id="1036458922#1_2" departed="0" arrived="0" entered="0" left="0"/>
        </edge>
        <edge id="1036458923#1">
            <lane id="1036458923#1_0" density="5.09" waitingTime="55.00" speed="10.64" departed="0" arrived="0" entered="9" left="2"/>
            <lane id="1036458923#1_1" density="4.25" waitingTime="59.00" speed="7.75" departed="0" arrived="0" entered="2" left="2"/>
            <lane id="1036458923#1_2" density="0.69" waitingTime="16.00" speed="0.36" departed="0" arrived="0" entered="0" left="0"/>
            <lane id="1036458923#1_3" departed="0" arrived="0" entered="0" left="0"/>
            <lane id="1036458923#1_4" departed="0" arrived="0" entered="0" left="0"/>
        </edge>
        <edge id="1036458927#0">
            <lane id="1036458927#0_0" departed="0" arrived="0" entered="0" left="0"/>
            <lane id="1036458927#0_1" density="0.71" waitingTime="0.00" speed="17.19" departed="0" arrived="0" entered="2" left="1"/>
            <lane id="1036458927#0_2" density="1.28" waitingTime="0.00" speed="16.84" departed="0" arrived="0" entered="2" left="3"/>
            <lane id="1036458927#0_3" departed="0" arrived="0" entered="0" left="0"/>
        </edge>
        <edge id="1036458930#0">
            <lane id="1036458930#0_0" departed="0" arrived="0" entered="0" left="0"/>
            <lane id="1036458930#0_1" density="0.52" waitingTime="0.00" speed="16.67" departed="0" arrived="1" entered="1" left="0"/>
            <lane id="1036458930#0_2" density="1.56" waitingTime="0.00" speed="16.69" departed="0" arrived="3" entered="3" left="0"/>
        </edge>
        <edge id="1036458931#0">
            <lane id="1036458931#0_0" departed="0" arrived="0" entered="0" left="0"/>
            <lane id="1036458931#0_1" departed="0" arrived="0" entered="0" left="0"/>
            <lane id="1036458931#0_2" departed="0" arrived="0" entered="0" left="0"/>
            <lane id="1036458931#0_3" departed="0" arrived="0" entered="0" left="0"/>
        </edge>
        <edge id="1036458933">
            <lane id="1036458933_0" departed="0" arrived="0" entered="0" left="0"/>
            <lane id="1036458933_1" departed="0" arrived="0" entered="0" left="0"/>
            <lane id="1036458933_2" departed="0" arrived="0" entered="0" left="0"/>
        </edge>
        <edge id="1037137260#0">
            <lane id="1037137260#0_0" departed="0" arrived="0" entered="0" left="0"/>
            <lane id="1037137260#0_1" departed="0" arrived="0" entered="0" left="0"/>
            <lane id="1037137260#0_2" departed="0" arrived="0" entered="0" left="0"/>
        </edge>
        <edge id="1037137260#1">
            <lane id="1037137260#1_0" departed="0" arrived="0" entered="0" left="0"/>
            <lane id="1037137260#1_1" departed="0" arrived="0" entered="0" left="0"/>
            <lane id="1037137260#1_2" departed="0" arrived="0" entered="0" left="0"/>
        </edge>
        <edge id="1037137260#2">
            <lane id="1037137260#2_0" departed="0" arrived="0" entered="0" left="0"/>
            <lane id="1037137260#2_1" departed="0" arrived="0" entered="0" left="0"/>
            <lane id="1037137260#2_2" departed="0" arrived="0" entered="0" left="0"/>
        </edge>
        <edge id="1037137262#2">
            <lane id="1037137262#2_0" departed="0" arrived="0" entered="0" left="0"/>
            <lane id="1037137262#2_1" departed="0" arrived="0" entered="0" left="0"/>
            <lane id="1037137262#2_2" departed="0" arrived="0" entered="0" left="0"/>
            <lane id="1037137262#2_3" departed="0" arrived="0" entered="0" left="0"/>
        </edge>
        <edge id="1037137263#0">
            <lane id="1037137263#0_0" density="0.85" waitingTime="0.00" speed="17.80" departed="0" arrived="0" entered="2" left="1"/>
            <lane id="1037137263#0_1" density="1.25" waitingTime="0.00" speed="16.37" departed="0" arrived="0" entered="2" left="3"/>
            <lane id="1037137263#0_2" density="2.34" waitingTime="0.00" speed="16.84" departed="0" arrived="0" entered="5" left="4"/>
        </edge>
        <edge id="1037137264">
            <lane id="1037137264_0" density="0.50" waitingTime="0.00" speed="19.55" departed="0" arrived="0" entered="1" left="1"/>
            <lane id="1037137264_1" density="1.57" waitingTime="0.00" speed="18.64" departed="0" arrived="0" entered="3" left="3"/>
            <lane id="1037137264_2" density="1.87" waitingTime="0.00" speed="19.63" departed="0" arrived="0" entered="4" left="3"/>
            <lane id="1037137264_3" departed="0" arrived="0" entered="0" left="0"/>
        </edge>
        <edge id="1037137266#0">
            <lane id="1037137266#0_0" density="0.43" waitingTime="0.00" speed="19.58" departed="0" arrived="0" entered="1" left="1"/>
            <lane id="1037137266#0_1" density="0.78" waitingTime="0.00" speed="19.07" departed="0" arrived="0" entered="3" left="0"/>
            <lane id="1037137266#0_2" density="1.00" waitingTime="0.00" speed="19.54" departed="0" arrived="0" entered="3" left="1"/>
        </edge>
        <edge id="1037137267">
            <lane id="1037137267_0" departed="0" arrived="0" entered="0" left="0"/>
            <lane id="1037137267_1" departed="0" arrived="0" entered="0" left="0"/>
            <lane id="1037137267_2" density="0.10" waitingTime="0.00" speed="19.55" departed="0" arrived="0" entered="1" left="0"/>
            <lane id="1037137267_3" departed="0" arrived="0" entered="0" left="0"/>
        </edge>
        <edge id="1043663393">
            <lane id="1043663393_0" departed="0" arrived="0" entered="0" left="0"/>
            <lane id="1043663393_1" density="0.96" waitingTime="0.00" speed="17.59" departed="0" arrived="2" entered="2" left="0"/>
            <lane id="1043663393_2" density="0.84" waitingTime="0.00" speed="19.03" departed="0" arrived="2" entered="1" left="0"/>
            <lane id="1043663393_3" density="0.05" waitingTime="0.00" speed="18.32" departed="0" arrived="0" entered="1" left="0"/>
        </edge>
        <edge id="1055949671#0">
            <lane id="1055949671#0_0" departed="0" arrived="0" entered="0" left="0"/>
            <lane id="1055949671#0_1" departed="0" arrived="0" entered="0" left="0"/>
            <lane id="1055949671#0_2" departed="0" arrived="0" entered="0" left="0"/>
            <lane id="1055949671#0_3" departed="0" arrived="0" entered="0" left="0"/>
        </edge>
        <edge id="1055949671#1">
            <lane id="1055949671#1_0" departed="0" arrived="0" entered="0" left="0"/>
            <lane id="1055949671#1_1" departed="0" arrived="0" entered="0" left="0"/>
            <lane id="1055949671#1_2" departed="0" arrived="0" entered="0" left="0"/>
            <lane id="1055949671#1_3" departed="0" arrived="0" entered="0" left="0"/>
        </edge>
        <edge id="1055949671#2">
            <lane id="1055949671#2_0" departed="0" arrived="0" entered="0" left="0"/>
            <lane id="1055949671#2_1" departed="0" arrived="0" entered="0" left="0"/>
            <lane id="1055949671#2_2" departed="0" arrived="0" entered="0" left="0"/>
            <lane id="1055949671#2_3" departed="0" arrived="0" entered="0" left="0"/>
        </edge>
        <edge id="1055949672#0">
            <lane id="1055949672#0_0" density="5.15" waitingTime="0.00" speed="11.45" departed="4" arrived="0" entered="0" left="8"/>
            <lane id="1055949672#0_1" density="3.73" waitingTime="0.00" speed="10.02" departed="4" arrived="0" entered="0" left="4"/>
            <lane id="1055949672#0_2" density="1.71" waitingTime="0.00" speed="4.36" departed="6" arrived="0" entered="0" left="0"/>
        </edge>
        <edge id="1055949676">
            <lane id="1055949676_0" density="5.04" waitingTime="0.00" speed="18.75" departed="0" arrived="0" entered="9" left="11"/>
            <lane id="1055949676_1" density="0.99" waitingTime="0.00" speed="18.80" departed="0" arrived="0" entered="3" left="1"/>
            <lane id="1055949676_2" departed="0" arrived="0" entered="0" left="0"/>
            <lane id="1055949676_3" departed="0" arrived="0" entered="0" left="0"/>
        </edge>
        <edge id="1055949677#0">
            <lane id="1055949677#0_0" density="5.10" waitingTime="0.00" speed="18.82" departed="0" arrived="0" entered="11" left="11"/>
            <lane id="1055949677#0_1" density="0.01" waitingTime="0.00" speed="17.80" departed="0" arrived="0" entered="1" left="0"/>
            <lane id="1055949677#0_2" departed="0" arrived="0" entered="0" left="0"/>
        </edge>
        <edge id="1055949678#1">
            <lane id="1055949678#1_0" density="5.79" waitingTime="0.00" speed="18.79" departed="0" arrived="0" entered="11" left="11"/>
            <lane id="1055949678#1_1" departed="0" arrived="0" entered="0" left="0"/>
            <lane id="1055949678#1_2" departed="0" arrived="0" entered="0" left="0"/>
            <lane id="1055949678#1_3" departed="0" arrived="0" entered="0" left="0"/>
        </edge>
        <edge id="1055949679#3">
            <lane id="1055949679#3_0" density="2.08" waitingTime="46.00" speed="0.12" departed="0" arrived="0" entered="0" left="1"/>
            <lane id="1055949679#3_1" density="5.38" waitingTime="52.00" speed="8.34" departed="0" arrived="0" entered="10" left="2"/>
            <lane id="1055949679#3_2" density="5.46" waitingTime="56.00" speed="6.77" departed="0" arrived="0" entered="0" left="5"/>
            <lane id="1055949679#3_3" departed="0" arrived="0" entered="0" left="0"/>
            <lane id="1055949679#3_4" departed="0" arrived="0" entered="0" left="0"/>
        </edge>
        <edge id="1059469655#3">
            <lane id="1059469655#3_0" density="4.31" waitingTime="50.00" speed="8.96" departed="0" arrived="0" entered="11" left="2"/>
            <lane id="1059469655#3_1" density="3.36" waitingTime="51.00" speed="4.39" departed="0" arrived="0" entered="0" left="2"/>
            <lane id="1059469655#3_2" density="5.68" waitingTime="66.00" speed="5.99" departed="0" arrived="0" entered="0" left="5"/>
            <lane id="1059469655#3_3" departed="0" arrived="0" entered="0" left="0"/>
            <lane id="1059469655#3_4" departed="0" arrived="0" entered="0" left="0"/>
        </edge>
        <edge id="1059469656#0">
            <lane id="1059469656#0_0" density="10.33" waitingTime="0.00" speed="19.29" departed="0" arrived="0" entered="11" left="11"/>
            <lane id="1059469656#0_1" density="0.94" waitingTime="0.00" speed="19.25" departed="0" arrived="0" entered="1" left="1"/>
            <lane id="1059469656#0_2" departed="0" arrived="0" entered="0" left="0"/>
        </edge>
        <edge id="1059469656#1">
            <lane id="1059469656#1_0" density="4.94" waitingTime="0.00" speed="19.34" departed="0" arrived="0" entered="11" left="11"/>
            <lane id="1059469656#1_1" density="0.04" waitingTime="0.00" speed="19.25" departed="0" arrived="0" entered="1" left="0"/>
            <lane id="1059469656#1_2" departed="0" arrived="0" entered="0" left="0"/>
        </edge>
        <edge id="1059469660">
            <lane id="1059469660_0" density="5.59" waitingTime="0.00" speed="18.88" departed="0" arrived="0" entered="11" left="11"/>